 Gaussian 09, Revision C.01,
 Gaussian 09:  AM64L-G09RevC.01 23-Sep-2011

 ---------------------------------------
 # opt 6-31g(d,p) geom=connectivity bvwn
 ---------------------------------------

 99/9=1/99;
 -----
 Title
 -----
 Charge =  0 Multiplicity = 1

 SCF Done:  E(RB-VWN) =  -120.335025700     A.U. after   12 cycles
 SCF Done:  E(RB-VWN) =  -120.337207065     A.U. after   10 cycles
 SCF Done:  E(RB-VWN) =  -120.337841061     A.U. after   10 cycles
 SCF Done:  E(RB-VWN) =  -120.338006611     A.U. after   10 cycles
 SCF Done:  E(RB-VWN) =  -120.338018746     A.U. after    8 cycles
 SCF Done:  E(RB-VWN) =  -120.338019456     A.U. after    6 cycles
 Optimization completed.
    -- Stationary point found.

                         Standard orientation:
 ---------------------------------------------------------------------
 Center     Atomic      Atomic             Coordinates (Angstroms)
 Number     Number       Type             X           Y           Z
 ---------------------------------------------------------------------
      1          6           0        1.292576   -0.261042   -0.000007
      2          6           0        0.000027    0.586414    0.000010
      3          1           0        2.186148    0.374498    0.000000
      4          1           0        1.344281   -0.907631   -0.884953
      5          1           0        1.344319   -0.907679    0.884915
      6          6           0       -1.292601   -0.260997    0.000007
      7          1           0        0.000073    1.247653   -0.877846
      8          1           0        0.000144    1.247565    0.877916
      9          1           0       -1.345151   -0.906383   -0.885774
     10          1           0       -2.186142    0.374574    0.001606
     11          1           0       -1.343686   -0.908844    0.884077
 ---------------------------------------------------------------------

 The electronic state is 1-A.
 Alpha  occ. eigenvalues --   -9.97488  -9.96654  -9.96653  -0.72342  -0.63620
 Alpha  occ. eigenvalues --   -0.54907  -0.42761  -0.40855  -0.37568  -0.36139
 Alpha  occ. eigenvalues --   -0.31998  -0.31938  -0.31373
 Alpha virt. eigenvalues --    0.04797   0.09391   0.09628   0.09708   0.11588
 Alpha virt. eigenvalues --    0.13571   0.13766   0.14034   0.16389   0.19902
 Alpha virt. eigenvalues --    0.44075   0.45430   0.47563   0.48786   0.50888

 Mulliken atomic charges:
              1
     1  C   -0.273106
     2  C   -0.138183
     3  H    0.085415
     4  H    0.088421
     5  H    0.088421
     6  C   -0.273115
     7  H    0.079940
     8  H    0.079941
     9  H    0.088427
    10  H    0.085419
    11  H    0.088421
 Sum of Mulliken atomic charges =   0.00000

 Dipole moment (field-independent basis, Debye):
    X=              0.0000    Y=              0.0474    Z=              0.0000  Tot=              0.0474
 Quadrupole moment (field-independent basis, Debye-Ang):
   XX=            -21.6305   YY=            -21.3565   ZZ=            -21.0764
   XY=              0.0004   XZ=              0.0001   YZ=             -0.0001

 Normal termination of Gaussian 09 at Thu Dec 12 15:26:04 2013.
