 Gaussian 09, Revision C.01,
 Gaussian 09:  AM64L-G09RevC.01 23-Sep-2011

 -------------------------------------------
 # SP 6-31g(d,p) bvwn SCF=(Tight) SCRF=COSMO
 -------------------------------------------

 99/5=1,9=1/99;
 -----
 Title
 -----
 Charge =  0 Multiplicity = 1

                         Standard orientation:
 ---------------------------------------------------------------------
 Center     Atomic      Atomic             Coordinates (Angstroms)
 Number     Number       Type             X           Y           Z
 ---------------------------------------------------------------------
      1          6           0       -1.292603   -0.261009    0.000001
      2          6           0        0.000003    0.586412    0.000000
      3          1           0       -2.186169    0.374517   -0.000185
      4          1           0       -1.344480   -0.907562    0.884983
      5          1           0       -1.344274   -0.907785   -0.884829
      6          6           0        1.292600   -0.261013   -0.000005
      7          1           0        0.000023    1.247621    0.877889
      8          1           0       -0.000008    1.247708   -0.877825
      9          1           0        1.344744   -0.907114    0.885294
     10          1           0        2.186167    0.374512   -0.000778
     11          1           0        1.343992   -0.908239   -0.884521
 ---------------------------------------------------------------------

 SCF Done:  E(RB-VWN) =  -120.338537674     A.U. after    9 cycles

 The electronic state is 1-A.
 Alpha  occ. eigenvalues --   -9.97122  -9.96284  -9.96283  -0.71993  -0.63289
 Alpha  occ. eigenvalues --   -0.54568  -0.42395  -0.40510  -0.37225  -0.35785
 Alpha  occ. eigenvalues --   -0.31654  -0.31584  -0.30990
 Alpha virt. eigenvalues --    0.05231   0.09856   0.10040   0.10161   0.12014
 Alpha virt. eigenvalues --    0.14012   0.14213   0.14483   0.16690   0.20228
 Alpha virt. eigenvalues --    0.44370   0.45689   0.47885   0.49051   0.51169

 Mulliken atomic charges:
              1
     1  C   -0.286977
     2  C   -0.141811
     3  H    0.089439
     4  H    0.092612
     5  H    0.092613
     6  C   -0.286976
     7  H    0.083219
     8  H    0.083219
     9  H    0.092614
    10  H    0.089439
    11  H    0.092610
 Sum of Mulliken atomic charges =   0.00000

 Dipole moment (field-independent basis, Debye):
    X=              0.0000    Y=              0.0542    Z=              0.0000  Tot=              0.0542
 Quadrupole moment (field-independent basis, Debye-Ang):
   XX=            -21.6247   YY=            -21.3158   ZZ=            -21.0253
   XY=              0.0000   XZ=              0.0000   YZ=             -0.0001

 Normal termination of Gaussian 09 at Fri Dec 13 11:56:53 2013.
